13
 energy: -16.179621538005 gnorm: 0.000013296724 xtb: 6.7.1 (b14f90e)
C           -1.18950745530000       -0.48133100170000        0.32821615180000
C           -1.38591338850000        0.90155660910000       -0.20578058420000
H           -2.04316414060000       -1.10886989940000        0.02433479460000
H           -1.19667639050000       -0.48259453710000        1.42244022050000
C            0.06181084400000       -1.16879444210000       -0.20177736450000
H           -2.20340736690000        1.43109911440000        0.28045517090000
H           -1.47772069340000        0.94010882880000       -1.29085367270000
H           -0.45884090440000        1.48464992360000        0.03538338520000
H            0.22842317860000       -2.13970911310000        0.26716853090000
C            1.26120712120000       -0.27964179480000       -0.01560359980000
H            0.01544327370000       -1.33710690380000       -1.28597020130000
O            1.25019393360000        0.90138179190000        0.10730407600000
H            2.21494073520000       -0.84325970990000       -0.02485422200000
