21
 energy: -32.371096705072 gnorm: 0.000542911340 xtb: 6.7.1 (b14f90e)
C           -3.05912516103117       -0.00214623330723       -0.19949942382482
C           -2.14574573614597        1.16325646895077       -0.48867495412116
O           -0.81808373607692        0.72872422498823       -0.80887445706115
P            0.07090248224471        0.14510563254342        0.36713144366545
O           -0.10642644838069        0.68559339793410        1.69698543157311
C           -0.08007530016463       -1.65532175591844        0.21696503506205
N           -0.19050851296955       -2.78582881090799        0.14624851898860
N            1.63717156284423        0.32850014329920       -0.29298045053734
C            1.91421649991667       -0.07070459727080       -1.62522804301720
C            2.68830133452172        0.75255229096971        0.55241013422910
H           -2.69490991101371       -0.54647029395290        0.67695731900255
H           -3.09500785908180       -0.69420204947171       -1.03981104204839
H           -4.06324931794352        0.35542133749008        0.01175923959215
H           -2.10848872614661        1.85173887096346        0.36446519926462
H           -2.46773059041996        1.72423083275914       -1.37254123222076
H            0.98513162185698       -0.17283020680847       -2.18521036809058
H            2.44776024971152       -1.03142173924161       -1.65535001683780
H            2.56972313454206        0.65821397694779       -2.11313441139240
H            2.32374555117901        0.84291791878314        1.57711919505154
H            3.06261802449977        1.73844083026925        0.23929917179587
H            3.54859344235793        0.07490630498036        0.50132309992694
