18
 energy: -20.391493596635 gnorm: 0.000689694701 xtb: 6.7.1 (b14f90e)
C           -2.61887648595104       -0.41484610515082       -0.24315500831360
C           -1.27853459544211       -0.26520159858765        0.43289819678876
H           -3.19787333042898        0.50256082925056       -0.12866014603630
H           -3.17575112988565       -1.23627376806435        0.19736582068824
H           -2.50442648097546       -0.58545945443073       -1.31212318942030
O           -0.49349170426609        0.68013090435436       -0.19455705084653
H           -0.73942808350685       -1.24506895663379        0.39308483232824
H           -1.37595597171185       -0.05763672610788        1.51413874651130
C            0.72524054355478        1.03638154376392        0.34927418930725
C            1.86584005390322        0.24006634847259       -0.36907761917975
H            0.77361879418592        0.87117708123928        1.43147538306438
H            0.87692574390065        2.09531783019811        0.11232952576622
C            1.88591165428861       -1.20891794649823        0.03949894575285
H            2.79408361257793        0.73353257787333       -0.07445854558590
H            1.73994475844324        0.34408131558230       -1.44712368609930
H            2.01038206146198       -1.32916021676543        1.11314265053968
H            2.72348596719450       -1.69747941065013       -0.46638558031020
H            1.00588715095724       -1.76770608974551       -0.29619685185500
